 Gaussian 09, Revision D.01,
 Gaussian 09:  ES64L-G09RevD.01 24-Apr-2013

 ----------------------------------
 #P bmk/6-31+g opt(modredun,calcfc)
 ----------------------------------

 ------------------------------
 Gaussian input prepared by ASE
 ------------------------------
 Symbolic Z-matrix:
 Charge =  0 Multiplicity = 1

 SCF Done:  E(RBMK) =  -455.991715630     A.U. after   14 cycles

  Exact polarizability:   0.000   0.000   0.000   0.000   0.000   0.000
 Approx polarizability: 136.818  -6.032 115.989   0.000  -0.003  64.523

 SCF Done:  E(RBMK) =  -455.993410301     A.U. after   13 cycles
 SCF Done:  E(RBMK) =  -455.994273485     A.U. after   14 cycles
 SCF Done:  E(RBMK) =  -455.995375494     A.U. after   13 cycles
 SCF Done:  E(RBMK) =  -455.995292722     A.U. after   12 cycles
 SCF Done:  E(RBMK) =  -455.995661950     A.U. after    8 cycles
 SCF Done:  E(RBMK) =  -455.995735925     A.U. after   13 cycles
 SCF Done:  E(RBMK) =  -455.995767983     A.U. after   12 cycles
 SCF Done:  E(RBMK) =  -455.995772302     A.U. after   10 cycles
 SCF Done:  E(RBMK) =  -455.995774253     A.U. after    9 cycles
 SCF Done:  E(RBMK) =  -455.995774325     A.U. after    9 cycles
 Optimization completed.
    -- Stationary point found.

                         Standard orientation:
 ---------------------------------------------------------------------
 Center     Atomic      Atomic             Coordinates (Angstroms)
 Number     Number       Type             X           Y           Z
 ---------------------------------------------------------------------
      1          6           0       -4.738408    0.589053   -0.000014
      2          1           0       -4.830079    1.672334   -0.000022
      3          1           0       -4.914646    0.053537   -0.928487
      4          1           0       -4.914646    0.053549    0.928467
      5          6           0       -2.386048   -0.148065    0.000027
      6          8           0       -2.539667   -1.363342    0.000121
      7          7           0       -1.091745    0.421073   -0.000026
      8          1           0       -0.972787    1.425564   -0.000104
      9          6           0        0.182244   -0.439529    0.000026
     10          1           0        0.137220   -1.088526   -0.885750
     11          1           0        0.137228   -1.088407    0.885890
     12          6           0        1.626327    0.297876   -0.000032
     13          8           0        1.691158    1.532836   -0.000124
     14          7           0        2.764497   -0.536205    0.000024
     15          1           0        2.570242   -1.530435    0.000100
     16          6           0        4.310415   -0.228675   -0.000009
     17          1           0        4.738082   -0.665178   -0.906242
     18          1           0        4.422916    0.858657   -0.000073
     19          1           0        4.738099   -0.665073    0.906266
 ---------------------------------------------------------------------

 The electronic state is 1-A.
 Alpha  occ. eigenvalues --  -19.54399 -19.54201 -14.72806 -14.72228 -10.63176
 Alpha  occ. eigenvalues --  -10.61758 -10.54977 -10.53603 -10.51606  -1.15507
 Alpha  occ. eigenvalues --   -1.15249  -0.99939  -0.98896  -0.81839  -0.77265
 Alpha  occ. eigenvalues --   -0.75420  -0.64884  -0.64106  -0.58239  -0.53302
 Alpha  occ. eigenvalues --   -0.52254  -0.50777  -0.50507  -0.49604  -0.47694
 Alpha  occ. eigenvalues --   -0.47494  -0.47205  -0.45276  -0.44839  -0.42520
 Alpha  occ. eigenvalues --   -0.40779  -0.31812  -0.31282  -0.30151  -0.25046
 Alpha virt. eigenvalues --   -0.05434   0.03033   0.03138   0.04386   0.04750
 Alpha virt. eigenvalues --    0.06144   0.07034   0.07239   0.07945   0.08921
 Alpha virt. eigenvalues --    0.09579   0.10269   0.10890   0.10997   0.12112

 Mulliken charges:
               1
     1  C   -0.473292
     2  H    0.199284
     3  H    0.218980
     4  H    0.218983
     5  C    0.567025
     6  O   -0.509816
     7  N   -0.644271
     8  H    0.427142
     9  C   -0.675980
    10  H    0.239376
    11  H    0.239376
    12  C    0.722355
    13  O   -0.573393
    14  N   -0.567651
    15  H    0.363142
    16  C   -0.410299
    17  H    0.208045
    18  H    0.242948
    19  H    0.208044
 Sum of Mulliken charges =   0.00000

 Dipole moment (field-independent basis, Debye):
    X=              2.7764    Y=             -1.1606    Z=              0.0000  Tot=              3.0092
 Quadrupole moment (field-independent basis, Debye-Ang):
   XX=            -37.8930   YY=            -60.9889   ZZ=            -55.5066
   XY=            -16.9013   XZ=              0.0012   YZ=              0.0005

 Normal termination of Gaussian 09 at Wed Sep  3 14:26:05 2025.
