 Gaussian 09, Revision D.01,
 Gaussian 09:  ES64L-G09RevD.01 24-Apr-2013

 ----------------------------------
 #P bmk/6-31+g opt(modredun,calcfc)
 ----------------------------------

 ------------------------------
 Gaussian input prepared by ASE
 ------------------------------
 Symbolic Z-matrix:
 Charge =  0 Multiplicity = 1

 SCF Done:  E(RBMK) =  -456.102604065     A.U. after   14 cycles

  Exact polarizability:   0.000   0.000   0.000   0.000   0.000   0.000
 Approx polarizability: 105.208  -1.299 113.266   0.000  -0.003  63.519

 SCF Done:  E(RBMK) =  -456.103446673     A.U. after   12 cycles
 SCF Done:  E(RBMK) =  -456.103448454     A.U. after   10 cycles
 Optimization completed.
    -- Stationary point found.

                         Standard orientation:
 ---------------------------------------------------------------------
 Center     Atomic      Atomic             Coordinates (Angstroms)
 Number     Number       Type             X           Y           Z
 ---------------------------------------------------------------------
      1          6           0       -4.012739    0.595433   -0.000009
      2          1           0       -3.964918    1.688836    0.000032
      3          1           0       -4.506078    0.217313   -0.898958
      4          1           0       -4.506147    0.217240    0.898869
      5          6           0       -2.510562   -0.144562    0.000034
      6          8           0       -2.570618   -1.387513    0.000120
      7          7           0       -1.218122    0.449328   -0.000019
      8          1           0       -1.090010    1.453631   -0.000090
      9          6           0        0.053231   -0.413852    0.000035
     10          1           0        0.000674   -1.066087   -0.882745
     11          1           0        0.000695   -1.065947    0.882920
     12          6           0        1.521225    0.301083   -0.000037
     13          8           0        1.605118    1.534862   -0.000137
     14          7           0        2.654169   -0.550646    0.000021
     15          1           0        2.441425   -1.541387    0.000105
     16          6           0        4.225872   -0.286648   -0.000015
     17          1           0        4.632036   -0.739334   -0.907602
     18          1           0        4.369768    0.796615   -0.000110
     19          1           0        4.632052   -0.739175    0.907644
 ---------------------------------------------------------------------

 The electronic state is 1-A.
 Alpha  occ. eigenvalues --  -19.54012 -19.52242 -14.72595 -14.71857 -10.63025
 Alpha  occ. eigenvalues --  -10.61545 -10.54633 -10.53676 -10.49652  -1.15136
 Alpha  occ. eigenvalues --   -1.13732  -0.99335  -0.98326  -0.81744  -0.79375
 Alpha  occ. eigenvalues --   -0.76451  -0.64507  -0.63871  -0.58160  -0.52915
 Alpha  occ. eigenvalues --   -0.52313  -0.51849  -0.50514  -0.49645  -0.48531
 Alpha  occ. eigenvalues --   -0.47530  -0.45612  -0.44651  -0.44013  -0.43339
 Alpha  occ. eigenvalues --   -0.40750  -0.31640  -0.30963  -0.29717  -0.29562
 Alpha virt. eigenvalues --    0.03249   0.03331   0.03974   0.03992   0.04754
 Alpha virt. eigenvalues --    0.06690   0.07020   0.08026   0.08594   0.09068
 Alpha virt. eigenvalues --    0.09765   0.10229   0.11136   0.11586   0.12441

 Mulliken charges:
               1
     1  C   -0.731566
     2  H    0.193773
     3  H    0.232305
     4  H    0.232308
     5  C    0.647577
     6  O   -0.542156
     7  N   -0.567377
     8  H    0.413631
     9  C   -0.538223
    10  H    0.239019
    11  H    0.239018
    12  C    0.710898
    13  O   -0.572945
    14  N   -0.568793
    15  H    0.360791
    16  C   -0.407595
    17  H    0.208761
    18  H    0.241813
    19  H    0.208761
 Sum of Mulliken charges =   0.00000

 Dipole moment (field-independent basis, Debye):
    X=              2.5506    Y=             -0.5289    Z=              0.0001  Tot=              2.6048
 Quadrupole moment (field-independent basis, Debye-Ang):
   XX=            -39.4871   YY=            -61.7609   ZZ=            -55.3441
   XY=            -18.3677   XZ=              0.0013   YZ=              0.0006

 Normal termination of Gaussian 09 at Wed Sep  3 14:21:51 2025.
