 Gaussian 09, Revision D.01,
 Gaussian 09:  ES64L-G09RevD.01 24-Apr-2013

 ----------------------------------
 #P bmk/6-31+g opt(modredun,calcfc)
 ----------------------------------

 ------------------------------
 Gaussian input prepared by ASE
 ------------------------------
 Symbolic Z-matrix:
 Charge =  0 Multiplicity = 1

 SCF Done:  E(RBMK) =  -456.123312550     A.U. after   14 cycles

  Exact polarizability:   0.000   0.000   0.000   0.000   0.000   0.000
 Approx polarizability: 101.326  -0.828 112.478   0.000  -0.003  63.300

 SCF Done:  E(RBMK) =  -456.124365621     A.U. after   12 cycles
 SCF Done:  E(RBMK) =  -456.124369317     A.U. after   10 cycles
 SCF Done:  E(RBMK) =  -456.124369749     A.U. after    9 cycles
 Optimization completed.
    -- Stationary point found.

                         Standard orientation:
 ---------------------------------------------------------------------
 Center     Atomic      Atomic             Coordinates (Angstroms)
 Number     Number       Type             X           Y           Z
 ---------------------------------------------------------------------
      1          6           0       -3.903522    0.624570   -0.000006
      2          1           0       -3.812562    1.716022   -0.000099
      3          1           0       -4.426845    0.277871   -0.895683
      4          1           0       -4.426805    0.278023    0.895754
      5          6           0       -2.469853   -0.149825    0.000025
      6          8           0       -2.540700   -1.393951    0.000095
      7          7           0       -1.189761    0.438024   -0.000018
      8          1           0       -1.052446    1.440958   -0.000079
      9          6           0        0.051639   -0.431652    0.000012
     10          1           0       -0.000908   -1.086401   -0.881736
     11          1           0       -0.000907   -1.086333    0.881810
     12          6           0        1.486631    0.288199   -0.000025
     13          8           0        1.570935    1.523753   -0.000095
     14          7           0        2.604760   -0.561923    0.000020
     15          1           0        2.396357   -1.552983    0.000082
     16          6           0        4.133343   -0.262728   -0.000009
     17          1           0        4.568024   -0.697071   -0.904639
     18          1           0        4.251751    0.824352   -0.000082
     19          1           0        4.568036   -0.696948    0.904675
 ---------------------------------------------------------------------

 The electronic state is 1-A.
 Alpha  occ. eigenvalues --  -19.54009 -19.52102 -14.72620 -14.71795 -10.62836
 Alpha  occ. eigenvalues --  -10.61294 -10.54392 -10.53274 -10.49319  -1.15220
 Alpha  occ. eigenvalues --   -1.13711  -1.00186  -0.99036  -0.82409  -0.79788
 Alpha  occ. eigenvalues --   -0.76403  -0.64991  -0.64350  -0.58716  -0.53391
 Alpha  occ. eigenvalues --   -0.52608  -0.52359  -0.50627  -0.50130  -0.48622
 Alpha  occ. eigenvalues --   -0.47271  -0.45453  -0.44860  -0.43925  -0.43597
 Alpha  occ. eigenvalues --   -0.40487  -0.31879  -0.31104  -0.29831  -0.29629
 Alpha virt. eigenvalues --    0.03190   0.03312   0.04080   0.04398   0.04871
 Alpha virt. eigenvalues --    0.06698   0.06953   0.08060   0.08774   0.09071
 Alpha virt. eigenvalues --    0.10110   0.10696   0.11221   0.11742   0.13086

 Mulliken charges:
               1
     1  C   -0.747876
     2  H    0.192711
     3  H    0.233145
     4  H    0.233144
     5  C    0.658787
     6  O   -0.550266
     7  N   -0.561959
     8  H    0.418329
     9  C   -0.552867
    10  H    0.240935
    11  H    0.240935
    12  C    0.741191
    13  O   -0.583852
    14  N   -0.573211
    15  H    0.367265
    16  C   -0.412682
    17  H    0.206718
    18  H    0.242834
    19  H    0.206719
 Sum of Mulliken charges =   0.00000

 Dipole moment (field-independent basis, Debye):
    X=              2.5078    Y=             -0.4619    Z=              0.0000  Tot=              2.5500
 Quadrupole moment (field-independent basis, Debye-Ang):
   XX=            -41.2108   YY=            -61.7187   ZZ=            -55.2376
   XY=            -18.2050   XZ=              0.0009   YZ=              0.0005

 Normal termination of Gaussian 09 at Wed Sep  3 14:21:00 2025.
