 Gaussian 09, Revision D.01,
 Gaussian 09:  ES64L-G09RevD.01 24-Apr-2013

 ----------------------------------
 #P bmk/6-31+g opt(modredun,calcfc)
 ----------------------------------

 ------------------------------
 Gaussian input prepared by ASE
 ------------------------------
 Symbolic Z-matrix:
 Charge =  0 Multiplicity = 1

 SCF Done:  E(RBMK) =  -456.152919086     A.U. after   13 cycles

  Exact polarizability:   0.000   0.000   0.000   0.000   0.000   0.000
 Approx polarizability:  87.519  -1.395 103.852   0.057  -0.099  61.450

 SCF Done:  E(RBMK) =  -456.160750610     A.U. after   12 cycles
 SCF Done:  E(RBMK) =  -456.160889626     A.U. after   11 cycles
 SCF Done:  E(RBMK) =  -456.160894317     A.U. after   10 cycles
 SCF Done:  E(RBMK) =  -456.160895184     A.U. after   11 cycles
 SCF Done:  E(RBMK) =  -456.160895250     A.U. after    8 cycles
 Optimization completed.
    -- Stationary point found.

                         Standard orientation:
 ---------------------------------------------------------------------
 Center     Atomic      Atomic             Coordinates (Angstroms)
 Number     Number       Type             X           Y           Z
 ---------------------------------------------------------------------
      1          6           0        3.415557    0.917649    0.000053
      2          1           0        3.005427    1.933651   -0.000112
      3          1           0        4.048214    0.782744    0.885766
      4          1           0        4.048497    0.782559   -0.885432
      5          6           0        2.338807   -0.154813   -0.000011
      6          8           0        2.618460   -1.371244   -0.000011
      7          7           0        1.050108    0.274651   -0.000046
      8          1           0        0.794016    1.254277   -0.000007
      9          6           0       -0.050359   -0.666400   -0.000026
     10          1           0        0.004140   -1.319878    0.884467
     11          1           0        0.004083   -1.319889   -0.884517
     12          6           0       -1.362254    0.121397   -0.000004
     13          8           0       -1.374503    1.367623   -0.000046
     14          7           0       -2.497525   -0.617794    0.000032
     15          1           0       -2.438457   -1.625061    0.000081
     16          6           0       -3.814209    0.016615    0.000030
     17          1           0       -4.581800   -0.762373   -0.000493
     18          1           0       -3.934787    0.648745    0.888001
     19          1           0       -3.934331    0.649499   -0.887459
 ---------------------------------------------------------------------

 The electronic state is 1-A.
 Alpha  occ. eigenvalues --  -19.54276 -19.51498 -14.72915 -14.70714 -10.62136
 Alpha  occ. eigenvalues --  -10.60011 -10.53791 -10.52418 -10.48040  -1.16213
 Alpha  occ. eigenvalues --   -1.13397  -1.03093  -1.01277  -0.84818  -0.80781
 Alpha  occ. eigenvalues --   -0.76236  -0.67339  -0.65598  -0.60094  -0.55226
 Alpha  occ. eigenvalues --   -0.53943  -0.53573  -0.51279  -0.51264  -0.48566
 Alpha  occ. eigenvalues --   -0.46838  -0.45824  -0.44561  -0.43902  -0.43217
 Alpha  occ. eigenvalues --   -0.39755  -0.32936  -0.31854  -0.29778  -0.29522
 Alpha virt. eigenvalues --    0.02763   0.02791   0.04818   0.05016   0.05050
 Alpha virt. eigenvalues --    0.06636   0.06859   0.07974   0.09117   0.09254
 Alpha virt. eigenvalues --    0.09671   0.11044   0.11646   0.12278   0.13584

 Mulliken charges:
               1
     1  C   -0.779223
     2  H    0.189227
     3  H    0.232839
     4  H    0.232840
     5  C    0.675452
     6  O   -0.574845
     7  N   -0.536025
     8  H    0.437226
     9  C   -0.585969
    10  H    0.245595
    11  H    0.245598
    12  C    0.764057
    13  O   -0.594285
    14  N   -0.603092
    15  H    0.400928
    16  C   -0.387520
    17  H    0.186354
    18  H    0.225408
    19  H    0.225436
 Sum of Mulliken charges =   0.00000

 Dipole moment (field-independent basis, Debye):
    X=             -3.5770    Y=             -0.2557    Z=              0.0003  Tot=              3.5862
 Quadrupole moment (field-independent basis, Debye-Ang):
   XX=            -47.9159   YY=            -60.0143   ZZ=            -54.8524
   XY=             18.0222   XZ=              0.0003   YZ=              0.0001

 Normal termination of Gaussian 09 at Wed Sep  3 14:15:22 2025.
