 Gaussian 09, Revision D.01,
 Gaussian 09:  ES64L-G09RevD.01 24-Apr-2013

 ----------------------------------
 #P bmk/6-31+g opt(modredun,calcfc)
 ----------------------------------

 ------------------------------
 Gaussian input prepared by ASE
 ------------------------------
 Symbolic Z-matrix:
 Charge =  0 Multiplicity = 1

 SCF Done:  E(RBMK) =  -456.139558306     A.U. after   13 cycles

  Exact polarizability:   0.000   0.000   0.000   0.000   0.000   0.000
 Approx polarizability:  98.695  -0.481 111.464   0.000   0.000  63.106

 SCF Done:  E(RBMK) =  -456.140941047     A.U. after   12 cycles
 SCF Done:  E(RBMK) =  -456.140947082     A.U. after   10 cycles
 SCF Done:  E(RBMK) =  -456.140947792     A.U. after    9 cycles
 Optimization completed.
    -- Stationary point found.

                         Standard orientation:
 ---------------------------------------------------------------------
 Center     Atomic      Atomic             Coordinates (Angstroms)
 Number     Number       Type             X           Y           Z
 ---------------------------------------------------------------------
      1          6           0       -3.790078    0.668662   -0.000020
      2          1           0       -3.641940    1.754436   -0.000124
      3          1           0       -4.343316    0.360564   -0.892808
      4          1           0       -4.343281    0.360733    0.892847
      5          6           0       -2.429142   -0.155152    0.000028
      6          8           0       -2.524523   -1.398918    0.000122
      7          7           0       -1.157156    0.416783   -0.000030
      8          1           0       -1.002352    1.417137   -0.000108
      9          6           0        0.051067   -0.463261    0.000006
     10          1           0       -0.000780   -1.119506   -0.881379
     11          1           0       -0.000790   -1.119439    0.881440
     12          6           0        1.451763    0.267445   -0.000026
     13          8           0        1.528021    1.505346   -0.000107
     14          7           0        2.560447   -0.573169    0.000032
     15          1           0        2.365588   -1.566319    0.000100
     16          6           0        4.044868   -0.224552    0.000000
     17          1           0        4.510234   -0.634904   -0.901829
     18          1           0        4.124501    0.866601   -0.000023
     19          1           0        4.510258   -0.634869    0.901831
 ---------------------------------------------------------------------

 The electronic state is 1-A.
 Alpha  occ. eigenvalues --  -19.54032 -19.51960 -14.72648 -14.71649 -10.62639
 Alpha  occ. eigenvalues --  -10.61001 -10.54154 -10.52916 -10.48989  -1.15363
 Alpha  occ. eigenvalues --   -1.13685  -1.01044  -0.99736  -0.83104  -0.80171
 Alpha  occ. eigenvalues --   -0.76338  -0.65520  -0.64812  -0.59215  -0.53897
 Alpha  occ. eigenvalues --   -0.52937  -0.52811  -0.50800  -0.50555  -0.48687
 Alpha  occ. eigenvalues --   -0.47064  -0.45292  -0.45016  -0.43835  -0.43778
 Alpha  occ. eigenvalues --   -0.40247  -0.32138  -0.31255  -0.29897  -0.29662
 Alpha virt. eigenvalues --    0.03110   0.03268   0.04231   0.04602   0.04986
 Alpha virt. eigenvalues --    0.06714   0.06880   0.08061   0.08908   0.09091
 Alpha virt. eigenvalues --    0.10095   0.10908   0.11321   0.12037   0.13153

 Mulliken charges:
               1
     1  C   -0.764044
     2  H    0.191700
     3  H    0.233745
     4  H    0.233745
     5  C    0.668956
     6  O   -0.557711
     7  N   -0.555377
     8  H    0.423590
     9  C   -0.567082
    10  H    0.242726
    11  H    0.242727
    12  C    0.766053
    13  O   -0.593003
    14  N   -0.576070
    15  H    0.374020
    16  C   -0.418316
    17  H    0.204937
    18  H    0.244468
    19  H    0.204935
 Sum of Mulliken charges =   0.00000

 Dipole moment (field-independent basis, Debye):
    X=              2.5693    Y=             -0.3899    Z=             -0.0001  Tot=              2.5987
 Quadrupole moment (field-independent basis, Debye-Ang):
   XX=            -42.9005   YY=            -61.5800   ZZ=            -55.1268
   XY=            -18.0376   XZ=              0.0012   YZ=              0.0005

 Normal termination of Gaussian 09 at Wed Sep  3 14:20:05 2025.
