 Gaussian 09, Revision D.01,
 Gaussian 09:  ES64L-G09RevD.01 24-Apr-2013

 ----------------------------------
 #P bmk/6-31+g opt(modredun,calcfc)
 ----------------------------------

 ------------------------------
 Gaussian input prepared by ASE
 ------------------------------
 Symbolic Z-matrix:
 Charge =  0 Multiplicity = 1

 SCF Done:  E(RBMK) =  -456.078222587     A.U. after   14 cycles

  Exact polarizability:   0.000   0.000   0.000   0.000   0.000   0.000
 Approx polarizability: 110.435  -1.924 113.883   0.000  -0.004  63.758

 SCF Done:  E(RBMK) =  -456.078960284     A.U. after   12 cycles
 SCF Done:  E(RBMK) =  -456.078961666     A.U. after    9 cycles
 Optimization completed.
    -- Stationary point found.

                         Standard orientation:
 ---------------------------------------------------------------------
 Center     Atomic      Atomic             Coordinates (Angstroms)
 Number     Number       Type             X           Y           Z
 ---------------------------------------------------------------------
      1          6           0       -4.121744    0.575189   -0.000007
      2          1           0       -4.107050    1.668686   -0.000089
      3          1           0       -4.585046    0.170208   -0.902215
      4          1           0       -4.585018    0.170346    0.902277
      5          6           0       -2.550493   -0.140853    0.000019
      6          8           0       -2.607967   -1.381668    0.000079
      7          7           0       -1.244837    0.455656   -0.000013
      8          1           0       -1.126599    1.461159   -0.000069
      9          6           0        0.055591   -0.400912    0.000029
     10          1           0        0.004656   -1.049923   -0.884312
     11          1           0        0.004672   -1.049813    0.884454
     12          6           0        1.557051    0.311131   -0.000028
     13          8           0        1.640472    1.543057   -0.000114
     14          7           0        2.704266   -0.541313    0.000026
     15          1           0        2.490274   -1.532297    0.000098
     16          6           0        4.318199   -0.304815   -0.000002
     17          1           0        4.698445   -0.771803   -0.910439
     18          1           0        4.479540    0.775228   -0.000040
     19          1           0        4.698461   -0.771741    0.910460
 ---------------------------------------------------------------------

 The electronic state is 1-A.
 Alpha  occ. eigenvalues --  -19.54023 -19.52400 -14.72551 -14.71878 -10.63190
 Alpha  occ. eigenvalues --  -10.61761 -10.54877 -10.54091 -10.50006  -1.15091
 Alpha  occ. eigenvalues --   -1.13778  -0.98524  -0.97653  -0.81157  -0.78948
 Alpha  occ. eigenvalues --   -0.76468  -0.64059  -0.63406  -0.57594  -0.52487
 Alpha  occ. eigenvalues --   -0.52027  -0.51343  -0.50459  -0.49145  -0.48416
 Alpha  occ. eigenvalues --   -0.47802  -0.45795  -0.44403  -0.44099  -0.43028
 Alpha  occ. eigenvalues --   -0.41038  -0.31398  -0.30820  -0.29563  -0.29487
 Alpha virt. eigenvalues --    0.03117   0.03347   0.03415   0.03952   0.04597
 Alpha virt. eigenvalues --    0.06675   0.07084   0.07886   0.08270   0.08953
 Alpha virt. eigenvalues --    0.09079   0.10173   0.11061   0.11592   0.12101

 Mulliken charges:
               1
     1  C   -0.715149
     2  H    0.194827
     3  H    0.231362
     4  H    0.231361
     5  C    0.634945
     6  O   -0.533551
     7  N   -0.571634
     8  H    0.409031
     9  C   -0.521865
    10  H    0.237143
    11  H    0.237141
    12  C    0.676402
    13  O   -0.560977
    14  N   -0.563749
    15  H    0.355034
    16  C   -0.403547
    17  H    0.210889
    18  H    0.241448
    19  H    0.210888
 Sum of Mulliken charges =   0.00000

 Dipole moment (field-independent basis, Debye):
    X=              2.6291    Y=             -0.5921    Z=              0.0001  Tot=              2.6950
 Quadrupole moment (field-independent basis, Debye-Ang):
   XX=            -37.7414   YY=            -61.7562   ZZ=            -55.4463
   XY=            -18.5618   XZ=              0.0010   YZ=              0.0005

 Normal termination of Gaussian 09 at Wed Sep  3 14:22:40 2025.
