 Gaussian 09, Revision D.01,
 Gaussian 09:  ES64L-G09RevD.01 24-Apr-2013

 -------------------
 #P bmk/6-31+g force
 -------------------

 ------------------------------
 Gaussian input prepared by ASE
 ------------------------------
 Symbolic Z-matrix:
 Charge =  0 Multiplicity = 1

                         Standard orientation:
 ---------------------------------------------------------------------
 Center     Atomic      Atomic             Coordinates (Angstroms)
 Number     Number       Type             X           Y           Z
 ---------------------------------------------------------------------
      1          6           0       -3.547869    0.816328   -0.000152
      2          1           0       -3.236656    1.867206   -0.000284
      3          1           0       -4.158856    0.615279   -0.887724
      4          1           0       -4.158837    0.615506    0.887488
      5          6           0       -2.362624   -0.158969   -0.000040
      6          8           0       -2.559521   -1.391666   -0.000036
      7          7           0       -1.087130    0.338124    0.000080
      8          1           0       -0.876856    1.328145    0.000061
      9          6           0        0.048954   -0.578452    0.000228
     10          1           0       -0.005395   -1.234311   -0.882301
     11          1           0       -0.005350   -1.233999    0.882996
     12          6           0        1.388291    0.183939    0.000093
     13          8           0        1.434757    1.427219    0.000112
     14          7           0        2.502574   -0.603865   -0.000033
     15          1           0        2.381913   -1.606341   -0.000131
     16          6           0        3.883747   -0.081861   -0.000184
     17          1           0        4.571681   -0.931402   -0.001087
     18          1           0        4.057275    0.535530   -0.889478
     19          1           0        4.058091    0.534240    0.889843
 ---------------------------------------------------------------------

 SCF Done:  E(RBMK) =  -456.158832350     A.U. after   13 cycles

 The electronic state is 1-A.
 Alpha  occ. eigenvalues --  -19.54153 -19.51681 -14.72758 -14.71121 -10.62177
 Alpha  occ. eigenvalues --  -10.60349 -10.53811 -10.52567 -10.48359  -1.15825
 Alpha  occ. eigenvalues --   -1.13569  -1.02525  -1.00917  -0.84362  -0.80722
 Alpha  occ. eigenvalues --   -0.76267  -0.66713  -0.65491  -0.59937  -0.54837
 Alpha  occ. eigenvalues --   -0.53670  -0.53364  -0.51141  -0.51071  -0.48592
 Alpha  occ. eigenvalues --   -0.47047  -0.45668  -0.44857  -0.43947  -0.43343
 Alpha  occ. eigenvalues --   -0.39860  -0.32593  -0.31631  -0.29894  -0.29627
 Alpha virt. eigenvalues --    0.02872   0.02970   0.04696   0.04775   0.05055
 Alpha virt. eigenvalues --    0.06698   0.06810   0.08024   0.09085   0.09175
 Alpha virt. eigenvalues --    0.09834   0.11001   0.11519   0.12221   0.13380

 Mulliken charges:
               1
     1  C   -0.784429
     2  H    0.189717
     3  H    0.233753
     4  H    0.233753
     5  C    0.680527
     6  O   -0.569671
     7  N   -0.541013
     8  H    0.433232
     9  C   -0.579251
    10  H    0.245439
    11  H    0.245448
    12  C    0.764646
    13  O   -0.594184
    14  N   -0.604810
    15  H    0.395442
    16  C   -0.386136
    17  H    0.187772
    18  H    0.224900
    19  H    0.224865
 Sum of Mulliken charges =   0.00000

 Dipole moment (field-independent basis, Debye):
    X=              3.0750    Y=             -0.3216    Z=             -0.0003  Tot=              3.0917
 Quadrupole moment (field-independent basis, Debye-Ang):
   XX=            -46.0676   YY=            -60.7685   ZZ=            -54.9331
   XY=            -18.2071   XZ=             -0.0015   YZ=             -0.0004

 Normal termination of Gaussian 09 at Tue Sep 16 16:00:17 2025.
