 Gaussian 09, Revision D.01,
 Gaussian 09:  ES64L-G09RevD.01 24-Apr-2013

 -------------------
 #P bmk/6-31+g force
 -------------------

 ------------------------------
 Gaussian input prepared by ASE
 ------------------------------
 Symbolic Z-matrix:
 Charge =  0 Multiplicity = 1

                         Standard orientation:
 ---------------------------------------------------------------------
 Center     Atomic      Atomic             Coordinates (Angstroms)
 Number     Number       Type             X           Y           Z
 ---------------------------------------------------------------------
      1          6           0       -3.669825    0.730055    0.000025
      2          1           0       -3.447360    1.803348   -0.000086
      3          1           0       -4.253526    0.470874   -0.889952
      4          1           0       -4.253378    0.471039    0.890148
      5          6           0       -2.391391   -0.160810   -0.000003
      6          8           0       -2.526898   -1.401574    0.000005
      7          7           0       -1.122391    0.383699   -0.000022
      8          1           0       -0.945414    1.380261   -0.000013
      9          6           0        0.051260   -0.510047   -0.000045
     10          1           0        0.000177   -1.166652   -0.881805
     11          1           0        0.000122   -1.166747    0.881641
     12          6           0        1.417580    0.237890    0.000006
     13          8           0        1.476298    1.478496   -0.000005
     14          7           0        2.524375   -0.583516    0.000031
     15          1           0        2.354135   -1.580482    0.000086
     16          6           0        3.962832   -0.171322    0.000008
     17          1           0        4.459689   -0.552995   -0.898849
     18          1           0        3.994132    0.922477   -0.000359
     19          1           0        4.459591   -0.552396    0.899182
 ---------------------------------------------------------------------

 SCF Done:  E(RBMK) =  -456.152631506     A.U. after   13 cycles

 The electronic state is 1-A.
 Alpha  occ. eigenvalues --  -19.54061 -19.51819 -14.72692 -14.71416 -10.62455
 Alpha  occ. eigenvalues --  -10.60671 -10.53951 -10.52616 -10.48662  -1.15568
 Alpha  occ. eigenvalues --   -1.13644  -1.01866  -1.00393  -0.83795  -0.80505
 Alpha  occ. eigenvalues --   -0.76271  -0.66082  -0.65211  -0.59631  -0.54399
 Alpha  occ. eigenvalues --   -0.53358  -0.53131  -0.51006  -0.50906  -0.48727
 Alpha  occ. eigenvalues --   -0.46908  -0.45204  -0.45039  -0.43899  -0.43742
 Alpha  occ. eigenvalues --   -0.40040  -0.32400  -0.31411  -0.29922  -0.29658
 Alpha virt. eigenvalues --    0.03017   0.03195   0.04445   0.04700   0.05067
 Alpha virt. eigenvalues --    0.06743   0.06806   0.08040   0.09023   0.09125
 Alpha virt. eigenvalues --    0.10021   0.10918   0.11439   0.12281   0.13214

 Mulliken charges:
               1
     1  C   -0.776736
     2  H    0.190626
     3  H    0.234014
     4  H    0.234012
     5  C    0.675814
     6  O   -0.564505
     7  N   -0.547207
     8  H    0.428840
     9  C   -0.579289
    10  H    0.244248
    11  H    0.244246
    12  C    0.782081
    13  O   -0.599178
    14  N   -0.576770
    15  H    0.380587
    16  C   -0.424320
    17  H    0.203426
    18  H    0.246675
    19  H    0.203436
 Sum of Mulliken charges =   0.00000

 Dipole moment (field-independent basis, Debye):
    X=              2.7512    Y=             -0.3142    Z=              0.0000  Tot=              2.7690
 Quadrupole moment (field-independent basis, Debye-Ang):
   XX=            -44.5643   YY=            -61.3160   ZZ=            -55.0206
   XY=            -17.8907   XZ=             -0.0002   YZ=             -0.0001

 Normal termination of Gaussian 09 at Tue Sep 16 15:20:17 2025.
