 Gaussian 09, Revision D.01,
 Gaussian 09:  ES64L-G09RevD.01 24-Apr-2013

 -------------------
 #P bmk/6-31+g force
 -------------------

 ------------------------------
 Gaussian input prepared by ASE
 ------------------------------
 Symbolic Z-matrix:
 Charge =  0 Multiplicity = 1

                         Standard orientation:
 ---------------------------------------------------------------------
 Center     Atomic      Atomic             Coordinates (Angstroms)
 Number     Number       Type             X           Y           Z
 ---------------------------------------------------------------------
      1          6           0        4.366596    0.553088   -0.000003
      2          1           0        4.407917    1.643526   -0.000010
      3          1           0        4.746305    0.091182    0.911226
      4          1           0        4.746304    0.091171   -0.911227
      5          6           0        2.598757   -0.134688    0.000000
      6          8           0        2.672725   -1.368273    0.000004
      7          7           0        1.270026    0.457093   -0.000001
      8          1           0        1.162290    1.463726   -0.000001
      9          6           0       -0.071507   -0.392610    0.000002
     10          1           0       -0.024311   -1.035414    0.887644
     11          1           0       -0.024311   -1.035421   -0.887635
     12          6           0       -1.624767    0.321620    0.000000
     13          8           0       -1.700432    1.551073    0.000004
     14          7           0       -2.794960   -0.526291   -0.000003
     15          1           0       -2.586009   -1.519059   -0.000008
     16          6           0       -4.476196   -0.319054   -0.000001
     17          1           0       -4.819097   -0.802757    0.914910
     18          1           0       -4.651092    0.757696   -0.000025
     19          1           0       -4.819100   -0.802797   -0.914890
 ---------------------------------------------------------------------

 SCF Done:  E(RBMK) =  -456.022630380     A.U. after   14 cycles

 The electronic state is 1-A.
 Alpha  occ. eigenvalues --  -19.54053 -19.52824 -14.72460 -14.71825 -10.63389
 Alpha  occ. eigenvalues --  -10.62067 -10.55229 -10.54805 -10.50893  -1.15071
 Alpha  occ. eigenvalues --   -1.14013  -0.97352  -0.96644  -0.80403  -0.77846
 Alpha  occ. eigenvalues --   -0.76379  -0.63409  -0.62691  -0.56625  -0.51917
 Alpha  occ. eigenvalues --   -0.51378  -0.50493  -0.50466  -0.48514  -0.48055
 Alpha  occ. eigenvalues --   -0.48046  -0.46389  -0.44317  -0.43888  -0.42029
 Alpha  occ. eigenvalues --   -0.41722  -0.31017  -0.30605  -0.29366  -0.28830
 Alpha virt. eigenvalues --    0.00939   0.03379   0.03399   0.03634   0.04082
 Alpha virt. eigenvalues --    0.06472   0.07073   0.07176   0.07920   0.08230
 Alpha virt. eigenvalues --    0.09183   0.10085   0.10861   0.10937   0.11631

 Mulliken charges:
               1
     1  C   -0.661939
     2  H    0.197483
     3  H    0.228216
     4  H    0.228216
     5  C    0.597622
     6  O   -0.516856
     7  N   -0.585536
     8  H    0.403606
     9  C   -0.504129
    10  H    0.234154
    11  H    0.234153
    12  C    0.622504
    13  O   -0.541927
    14  N   -0.555426
    15  H    0.347078
    16  C   -0.398315
    17  H    0.214570
    18  H    0.241957
    19  H    0.214569
 Sum of Mulliken charges =   0.00000

 Dipole moment (field-independent basis, Debye):
    X=             -2.8301    Y=             -0.7478    Z=              0.0000  Tot=              2.9272
 Quadrupole moment (field-independent basis, Debye-Ang):
   XX=            -34.4078   YY=            -61.5887   ZZ=            -55.6156
   XY=             18.7568   XZ=              0.0000   YZ=              0.0000

 Normal termination of Gaussian 09 at Tue Sep 16 16:00:20 2025.
