 Gaussian 09, Revision D.01,
 Gaussian 09:  ES64L-G09RevD.01 24-Apr-2013

 -------------------
 #P bmk/6-31+g force
 -------------------

 ------------------------------
 Gaussian input prepared by ASE
 ------------------------------
 Symbolic Z-matrix:
 Charge =  0 Multiplicity = 1

                         Standard orientation:
 ---------------------------------------------------------------------
 Center     Atomic      Atomic             Coordinates (Angstroms)
 Number     Number       Type             X           Y           Z
 ---------------------------------------------------------------------
      1          6           0        4.234206    0.561367   -0.000002
      2          1           0        4.247663    1.653873   -0.000001
      3          1           0        4.663185    0.130384    0.905989
      4          1           0        4.663183    0.130388   -0.905995
      5          6           0        2.584309   -0.137450    0.000000
      6          8           0        2.645841   -1.375397    0.000001
      7          7           0        1.265548    0.458087   -0.000001
      8          1           0        1.153415    1.464318    0.000001
      9          6           0       -0.059463   -0.394149    0.000003
     10          1           0       -0.010543   -1.039663    0.886150
     11          1           0       -0.010542   -1.039672   -0.886139
     12          6           0       -1.591952    0.317968    0.000000
     13          8           0       -1.671725    1.548381    0.000002
     14          7           0       -2.752904   -0.532682   -0.000002
     15          1           0       -2.540808   -1.524513   -0.000005
     16          6           0       -4.407050   -0.316139   -0.000001
     17          1           0       -4.764257   -0.793973    0.913136
     18          1           0       -4.578777    0.761585   -0.000029
     19          1           0       -4.764260   -0.794021   -0.913111
 ---------------------------------------------------------------------

 SCF Done:  E(RBMK) =  -456.051724759     A.U. after   14 cycles

 The electronic state is 1-A.
 Alpha  occ. eigenvalues --  -19.54039 -19.52571 -14.72497 -14.71854 -10.63315
 Alpha  occ. eigenvalues --  -10.61934 -10.55084 -10.54511 -10.50393  -1.15071
 Alpha  occ. eigenvalues --   -1.13851  -0.97803  -0.97046  -0.80681  -0.78477
 Alpha  occ. eigenvalues --   -0.76446  -0.63665  -0.62986  -0.57040  -0.52129
 Alpha  occ. eigenvalues --   -0.51726  -0.50871  -0.50460  -0.48690  -0.48268
 Alpha  occ. eigenvalues --   -0.48047  -0.46025  -0.44187  -0.44116  -0.42623
 Alpha  occ. eigenvalues --   -0.41342  -0.31173  -0.30688  -0.29405  -0.29318
 Alpha virt. eigenvalues --    0.02120   0.03372   0.03396   0.03971   0.04302
 Alpha virt. eigenvalues --    0.06635   0.07138   0.07418   0.08041   0.08566
 Alpha virt. eigenvalues --    0.09111   0.10140   0.10998   0.11629   0.11859

 Mulliken charges:
               1
     1  C   -0.696331
     2  H    0.196026
     3  H    0.230188
     4  H    0.230188
     5  C    0.620106
     6  O   -0.525016
     7  N   -0.576442
     8  H    0.405240
     9  C   -0.507408
    10  H    0.235414
    11  H    0.235414
    12  C    0.643566
    13  O   -0.549688
    14  N   -0.558732
    15  H    0.350115
    16  C   -0.400311
    17  H    0.213052
    18  H    0.241568
    19  H    0.213051
 Sum of Mulliken charges =   0.00000

 Dipole moment (field-independent basis, Debye):
    X=             -2.7420    Y=             -0.6595    Z=              0.0000  Tot=              2.8202
 Quadrupole moment (field-independent basis, Debye-Ang):
   XX=            -35.9489   YY=            -61.7038   ZZ=            -55.5394
   XY=             18.7223   XZ=              0.0000   YZ=              0.0000

 Normal termination of Gaussian 09 at Tue Sep 16 15:20:18 2025.
