 Gaussian 09, Revision D.01,
 Gaussian 09:  ES64L-G09RevD.01 24-Apr-2013

 -------------------
 #P bmk/6-31+g force
 -------------------

 ------------------------------
 Gaussian input prepared by ASE
 ------------------------------
 Symbolic Z-matrix:
 Charge =  0 Multiplicity = 1

                         Standard orientation:
 ---------------------------------------------------------------------
 Center     Atomic      Atomic             Coordinates (Angstroms)
 Number     Number       Type             X           Y           Z
 ---------------------------------------------------------------------
      1          6           0        3.790078    0.668662   -0.000005
      2          1           0        3.641940    1.754436    0.000023
      3          1           0        4.343311    0.360626    0.892806
      4          1           0        4.343285    0.360672   -0.892849
      5          6           0        2.429142   -0.155152   -0.000004
      6          8           0        2.524523   -1.398918   -0.000012
      7          7           0        1.157156    0.416783    0.000007
      8          1           0        1.002352    1.417137    0.000016
      9          6           0       -0.051067   -0.463261    0.000026
     10          1           0        0.000775   -1.119445    0.881456
     11          1           0        0.000795   -1.119500   -0.881362
     12          6           0       -1.451763    0.267445    0.000000
     13          8           0       -1.528021    1.505346   -0.000005
     14          7           0       -2.560447   -0.573169   -0.000006
     15          1           0       -2.365588   -1.566319   -0.000005
     16          6           0       -4.044868   -0.224552   -0.000006
     17          1           0       -4.510238   -0.634840    0.901849
     18          1           0       -4.124501    0.866601   -0.000061
     19          1           0       -4.510253   -0.634932   -0.901811
 ---------------------------------------------------------------------

 SCF Done:  E(RBMK) =  -456.140947784     A.U. after   13 cycles

 The electronic state is 1-A.
 Alpha  occ. eigenvalues --  -19.54032 -19.51960 -14.72648 -14.71649 -10.62639
 Alpha  occ. eigenvalues --  -10.61001 -10.54154 -10.52916 -10.48989  -1.15363
 Alpha  occ. eigenvalues --   -1.13685  -1.01044  -0.99736  -0.83104  -0.80171
 Alpha  occ. eigenvalues --   -0.76338  -0.65520  -0.64812  -0.59215  -0.53897
 Alpha  occ. eigenvalues --   -0.52937  -0.52811  -0.50800  -0.50555  -0.48687
 Alpha  occ. eigenvalues --   -0.47064  -0.45292  -0.45016  -0.43835  -0.43778
 Alpha  occ. eigenvalues --   -0.40247  -0.32138  -0.31255  -0.29897  -0.29662
 Alpha virt. eigenvalues --    0.03110   0.03268   0.04231   0.04602   0.04986
 Alpha virt. eigenvalues --    0.06714   0.06880   0.08061   0.08908   0.09091
 Alpha virt. eigenvalues --    0.10095   0.10908   0.11321   0.12037   0.13153

 Mulliken charges:
               1
     1  C   -0.764044
     2  H    0.191700
     3  H    0.233745
     4  H    0.233745
     5  C    0.668956
     6  O   -0.557711
     7  N   -0.555377
     8  H    0.423590
     9  C   -0.567082
    10  H    0.242726
    11  H    0.242727
    12  C    0.766053
    13  O   -0.593003
    14  N   -0.576070
    15  H    0.374020
    16  C   -0.418316
    17  H    0.204937
    18  H    0.244468
    19  H    0.204935
 Sum of Mulliken charges =   0.00000

 Dipole moment (field-independent basis, Debye):
    X=             -2.5693    Y=             -0.3899    Z=              0.0001  Tot=              2.5987
 Quadrupole moment (field-independent basis, Debye-Ang):
   XX=            -42.9005   YY=            -61.5800   ZZ=            -55.1268
   XY=             18.0376   XZ=              0.0001   YZ=              0.0000

 Normal termination of Gaussian 09 at Mon Sep  8 11:54:39 2025.
